     618
 i = 13726200, time = 13726199.997, E =        -3.3969758118
  O        41.2302028254       86.6875839321        8.7202119192
  H        40.2502391679       86.4884936722        8.7142968788
  H        41.3898342488       87.5881951935        8.3159621102
  O        65.0168019115     -183.6356988586       17.3586577501
  H        65.0241417762     -182.6444295281       17.4903085898
  H        64.5649075823     -183.8537509889       16.4936459069
  O        58.0289640789      126.0518186647       24.1649638633
  H        58.9678201855      125.7438224940       24.3188738219
  H        57.9428829066      127.0093073336       24.4402930895
  O       -69.6323944824      518.3605745189       11.5166341298
  H       -69.3791471274      517.5521990878       10.9852249188
  H       -70.2819859847      518.9128949414       10.9941651392
  O      -166.8302793768      100.1826257580        3.4751878586
  H      -166.0742895211      100.3983919768        2.8571870634
  H      -166.8988816257       99.1909816345        3.5844415365
  O       -70.0095424818      116.5343238473        9.9914145274
  H       -70.7752985780      116.6400119862       10.6258026969
  H       -69.9764281417      117.3209525711        9.3748761967
  O       181.3417792634     -113.5975716051       19.3905072469
  H       181.1543483754     -114.0233081697       20.2757296783
  H       182.3254807743     -113.4447816362       19.2957056801
  O       -13.7493916932     -256.3286648195        5.7198088770
  H       -13.0553450181     -255.7225919143        5.3312531479
  H       -13.3929030732     -256.7533934635        6.5519880378
  O      -143.2726129017     -131.1620235288       14.8901591720
  H      -143.9880817727     -131.8497038615       14.7668674416
  H      -143.6924146033     -130.2749197935       15.0820294690
  O       -42.8188157226     -206.0130646808        8.4862763368
  H       -43.1286395237     -206.5084229446        9.2978366323
  H       -41.8531942361     -205.7745846856        8.5897323517
  O        25.2075450263      324.0074690969       11.2132687390
  H        24.9247418603      324.0509019403       12.1714631780
  H        24.3980877365      324.0149409541       10.6261369372
  O      -146.9683970369     -287.0893152494       15.4573986111
  H      -147.1029593975     -288.0757207459       15.3630704937
  H      -145.9927257710     -286.8786637436       15.3966353284
  O        70.6866250187       32.2233135282       17.4713528436
  H        71.6645137996       32.3314000909       17.6503822640
  H        70.3215603857       31.4906643984       18.0457688710
  O      -121.7730546271      -97.3505472580        3.3545996812
  H      -121.3585220477      -97.7235225472        4.1846917733
  H      -121.3431735468      -96.4756726867        3.1314462682
  O        18.3600693309      293.1675948088       24.8548301830
  H        18.7032677757      292.5570699153       24.1410551050
  H        17.5739631572      292.7446925827       25.3055978296
  O       -85.9019632199       77.5921814526       22.4243469730
  H       -86.1718690967       77.6025369687       23.3871784797
  H       -86.6396956296       77.1990118238       21.8755579278
  O        -8.6465292744      440.6926868971       14.8243180169
  H        -7.8262218748      440.8703269856       15.3679543609
  H        -8.5002561890      439.8838894702       14.2547114790
  O      -141.7777768855       45.3238749856        4.6857918015
  H      -141.6238001151       45.4447460946        5.6664456805
  H      -141.5090841953       46.1562602967        4.2010860848
  O       190.1114902983       22.6335623244       11.3028532749
  H       189.7498999192       22.6813726493       10.3717424987
  H       190.0199997651       21.6996444144       11.6484361539
  O       124.4314074188       71.9067550924       12.8717064601
  H       124.2919661734       71.5107028131       13.7792853478
  H       123.7130503080       71.5863292141       12.2542187867
  O       136.1386687535       32.9815700639       24.4155235754
  H       137.1084820001       33.1956378399       24.5323052630
  H       136.0403236183       32.0315364097       24.1192719963
  O        35.8305055103     -201.3781456912       21.5873233033
  H        35.6184645616     -200.7795978355       20.8148080574
  H        35.2030189628     -202.1567734135       21.5877785136
  O      -329.8605677935     -265.6549146368        4.6768355928
  H      -330.8082741170     -265.3482246447        4.5885483035
  H      -329.2850038831     -265.1479909693        4.0351539868
  O       160.1014925301      288.3273870531        2.9872247816
  H       160.8153769862      288.0271645198        3.6198670834
  H       160.4270644857      289.1175113179        2.4678912348
  O      -165.5339950824       79.2871532200       14.4410700279
  H      -164.9377029433       79.9103951994       13.9350998412
  H      -165.9483303260       79.7733322461       15.2104574331
  O      -230.1671233542       98.2161838019       23.9893292374
  H      -229.4470487697       98.9033277649       24.0859029427
  H      -230.7827768957       98.4805575675       23.2469829952
  O       150.0086692016     -125.1627609882        6.8481025402
  H       150.4221576681     -124.2594008622        6.9619817673
  H       149.2570849136     -125.2698021537        7.4989972731
  O       -92.5170892287      -77.5155338121       16.4428592458
  H       -93.3709561474      -77.0262120756       16.2654438317
  H       -92.5920909416      -78.4519422353       16.1000550484
  O       -41.3434387840      118.5744045924       21.6818768393
  H       -41.4974568358      118.6854326197       20.7000663093
  H       -41.7084801169      117.6920591108       21.9788818514
  O       117.7063030815      -66.8799010647       21.7870077485
  H       117.5976552456      -65.9120813491       22.0139909017
  H       116.8111207666      -67.3255900127       21.7902774362
  O       122.3872714433     -296.5230189709       22.3941113332
  H       121.6125696436     -296.5716643094       21.7636579610
  H       122.9691883084     -295.7479098880       22.1479825581
  O      -409.9356114173     -207.8334644793        6.5578756826
  H      -409.1116137833     -207.6787272760        6.0128204487
  H      -410.6457661984     -207.1868138033        6.2794446246
  O        52.2323586776     -124.3649554480       10.0372096733
  H        52.5392828741     -124.6451989537        9.1276702385
  H        51.7396095736     -123.4973741978        9.9701143594
  O       -50.1957139131     -476.3867164462        8.9066540825
  H       -49.9328158826     -475.7333390051        9.6165718646
  H       -51.1155528357     -476.7310408006        9.0946376053
  O        61.3022913942        7.1411480084       17.9826305964
  H        61.9607366360        7.2228529088       18.7308116420
  H        60.6039804111        7.8510720874       18.0741198173
  O      -138.4165522834      311.5777970570       13.2752951820
  H      -139.2613403962      311.0480915922       13.3510955309
  H      -138.4435579816      312.3423274743       13.9193173853
  O      -242.2453649784       -6.4318160597        6.1180652470
  H      -241.7457123221       -6.2834103957        6.9714840984
  H      -241.6554020718       -6.2061365049        5.3428148476
  O       -20.8439065305      -26.7140076864        5.5745135528
  H       -21.1572439225      -27.6625728037        5.5292963494
  H       -20.1479751054      -26.5590480649        4.8733233715
  O       272.1840699537        1.4722952825        6.2167177970
  H       272.2281362126        1.8549878319        5.2938931739
  H       273.0631770645        1.6043535559        6.6746828684
  O       125.3222331593     -116.0640478330        2.8105009483
  H       125.9074296750     -115.8232244574        3.5848069900
  H       124.4843323400     -115.5192418448        2.8438080093
  O      -282.6931587001      196.6560867644       24.4142471765
  H      -282.6171331466      197.6260138714       24.1830281683
  H      -283.6030583944      196.4723932020       24.7861879371
  O      -218.6207747341      -76.8095326156       15.8052830605
  H      -218.0752391296      -76.0042390999       16.0374335444
  H      -219.3190931508      -76.5572966988       15.1354106655
  O        25.0598044158      -42.9295772172        4.5063546911
  H        25.5817924350      -43.3974424277        3.7931707473
  H        25.6469305754      -42.7725607177        5.3004765602
  O       220.9173927653      147.3588302953       21.5374022373
  H       221.5175581597      148.1028943510       21.8309508559
  H       219.9648921296      147.6591213049       21.5880835214
  O       -95.6074217062      256.1484737585       21.0392716784
  H       -95.4390966336      255.4376808957       20.3563069164
  H       -96.4737760736      255.9656983525       21.5040555977
  O      -187.6853995709     -148.2136535888       23.0794949254
  H      -186.9018063422     -147.7641495023       22.6506261423
  H      -188.0342532340     -148.9270063263       22.4716876434
  O      -388.4375371649       25.6219274667       24.6554852851
  H      -389.0387589764       26.4072964883       24.5080787667
  H      -387.4889226514       25.9337639369       24.7092384780
  O       -78.4684218615      221.4843990133       16.2356331495
  H       -79.4339436859      221.6064191573       16.4655882865
  H       -77.9347019368      221.3916474497       17.0761931266
  O        39.5731494970     -417.7680122604       24.9345236898
  H        39.1327718040     -416.9431896196       24.5799313314
  H        39.6073229850     -418.4627650976       24.2160870712
  O       293.7651339073     -256.1298069672        7.5909497037
  H       294.3965917852     -256.3428582609        6.8453823132
  H       294.2437562945     -256.2072454551        8.4655493504
  O        56.0561571124       62.1677245947       13.4776257390
  H        55.1680050916       61.7131533450       13.4101596370
  H        56.6054560091       61.9474426852       12.6715566924
  O       -28.9259322518      -19.8637936626       12.9273583466
  H       -28.9534555917      -20.8174696033       12.6277827669
  H       -29.8068762164      -19.4296684647       12.7390134242
  O      -296.8605137765     -329.4837498329        3.0624620829
  H      -297.0246033120     -330.2632101548        3.6670420458
  H      -297.4685853380     -329.5421761682        2.2707323041
  O      -103.6318648168       80.0968615628       20.7097672450
  H      -104.3951382770       79.7730331009       21.2688284730
  H      -103.9700129389       80.3668617893       19.8082371957
  O       -58.7322017568     -221.1505927362       19.1685909642
  H       -58.9487246956     -220.7643882542       20.0652317059
  H       -58.7722627435     -220.4297421214       18.4766587333
  O      -401.5804522865       26.5551406802        4.3282808964
  H      -401.1223463353       25.7020491904        4.0785319152
  H      -402.2259361266       26.8100482081        3.6082993206
  O       294.6504535442     -165.0720216451       24.3386396923
  H       294.1808994946     -164.3853927540       23.7836076996
  H       295.6036278154     -164.7995684272       24.4698974429
  O       -80.2949275843      287.1017651464       18.9405876059
  H       -79.4638759334      286.5796112493       19.1321839678
  H       -80.2074559747      288.0205964024       19.3254233419
  O       -66.9498066880       42.0857682374       13.8977054248
  H       -67.4496282992       41.4557692914       13.3033315697
  H       -66.5239287056       41.5734318932       14.6434534289
  O      -116.6286598012     -156.3533680836       23.7874765649
  H      -115.7496311829     -156.8258681673       23.8511402470
  H      -117.0547654424     -156.5592882872       22.9065500316
  O         9.8218274919      307.5430549992       11.5094682835
  H         9.8457631973      308.1519799983       12.3023353175
  H        10.7350704890      307.4847528133       11.1062452838
  O       298.8605605385       24.7931495321       12.4914007620
  H       298.4123817107       23.9064838351       12.6052453752
  H       298.1823632647       25.4775361672       12.2236996337
  O       593.7524030222      -33.2378060230        6.0117103379
  H       593.5030756598      -32.9394718437        5.0903888157
  H       593.3930719602      -32.5877421435        6.6812616691
  O        38.6564154398      -92.1806716099       21.6218065374
  H        39.0967589213      -91.3634293345       21.2500359250
  H        38.5884005656      -92.0995608090       22.6161886175
  O       199.5977445546      404.5419485381       20.1396033495
  H       199.9762300917      405.1934044763       20.7971400997
  H       199.4499291340      405.0005674857       19.2633499762
  O      -130.9657108644      220.9237629345       11.2972688233
  H      -130.3891851042      221.5991087426       10.8373484066
  H      -131.9183686865      221.0574675492       11.0241995067
  O       158.2393124092      320.6524448469       21.7606234867
  H       157.3601832460      320.9979446893       21.4323515623
  H       158.9377772147      321.3594319318       21.6496421732
  O       114.5908612296      313.5551903926       14.7148448758
  H       114.8606728112      313.3641280475       15.6586126417
  H       115.2428950035      314.1925919178       14.3042697183
  O      -125.8659295746     -419.5531383366       18.8157244123
  H      -125.6810038509     -419.7043056303       19.7867813808
  H      -125.0139990264     -419.6316315554       18.2979852270
  O        38.8903544802     -194.4306156524       13.3883605000
  H        38.8737315138     -194.7480751675       12.4402341535
  H        38.1494665088     -193.7748244267       13.5333553709
  O       104.9029630711      252.4290846857       10.5674505449
  H       105.0374205501      252.4405088499       11.5583044076
  H       104.0687413463      251.9223081443       10.3500744740
  O       189.7022411959      126.1775018230       18.2705506044
  H       189.2775078444      126.4500398293       17.4072283392
  H       189.7959404206      125.1822360435       18.2963807960
  O        55.5025314383      189.1279960454       24.4399685230
  H        54.8390773950      189.8740392489       24.4969683109
  H        56.4286682748      189.5000517779       24.5019829322
  O       -44.9306952353      -13.2095127792        3.5475081807
  H       -44.9701418482      -14.1805462407        3.7831746521
  H       -44.2565052356      -12.7527556389        4.1278886286
  O       239.6592703348      -28.2211574794       19.8483470314
  H       240.3803721595      -28.8247857327       19.5082795343
  H       239.7829261111      -27.3055979829       19.4656450324
  O         3.8021857818     -127.2639643779        5.8778345029
  H         4.7394936903     -127.0036360578        6.1095320570
  H         3.1700313284     -126.5638340163        6.2097967524
  O      -185.1371455674      181.8608762973        3.7751040218
  H      -185.3550164124      181.2719683689        2.9968236467
  H      -184.8112837075      182.7458699237        3.4425364514
  O      -149.4217778330        2.1749605361        6.7605807459
  H      -149.8527093056        2.0228750818        5.8711040449
  H      -149.6477260986        1.4183591136        7.3741786516
  O         5.8176578032      -59.2405674836       18.7183291826
  H         6.4069957491      -58.4498684104       18.5525689169
  H         6.3496937527      -60.0807369534       18.6131925188
  O       129.3626709172       33.3860656789       11.6297475477
  H       129.1171211238       32.4412454055       11.4129045813
  H       128.6074175285       33.8230449641       12.1182577844
  O       222.6718340713     -148.3629847292       24.2865214603
  H       222.3546034348     -149.1415505330       24.8280013253
  H       222.9949722932     -147.6409931346       24.8983304902
  O        90.1011042278      -65.9326836542       17.3418794566
  H        90.7296805955      -66.6802670784       17.5563825695
  H        90.5857102038      -65.2280408514       16.8235781790
  O       184.5479544496       18.9500420289       10.5426885406
  H       184.2638981766       19.3240475112       11.4255434105
  H       183.8616422002       19.1722530773        9.8501578903
  O      -127.3099406483      181.9283299141        8.2395554740
  H      -127.1758746656      181.0748580508        7.7359556352
  H      -126.9335310236      182.6895916299        7.7115430614
  O       -45.8814993930      252.6634108182        3.8091630724
  H       -46.6218526454      252.4915387484        4.4590382543
  H       -45.2164136452      251.9181651567        3.8568133089
  O        86.4128452515       40.2577490351       17.5189693501
  H        86.5594512380       41.0474017473       16.9231875280
  H        85.7978073889       40.5127393524       18.2650987440
  O        33.7816289362      242.1079941204        8.8732388643
  H        34.1442149517      242.2393835246        7.9505965180
  H        33.7049609991      242.9939788297        9.3305721814
  O        82.6089273650       97.6389820114       24.2317227505
  H        83.5479297151       97.4887717234       24.5410965068
  H        82.4307892214       98.6211614766       24.1717980290
  O        39.3224527775     -261.8721084423        8.7021143078
  H        39.6313620201     -260.9213499033        8.7272898033
  H        38.6158261996     -262.0114983046        9.3958361940
  O        81.7083274628      -80.2956509154        5.8630765386
  H        82.5329520123      -80.8573964688        5.9296872927
  H        81.2283589110      -80.3027970981        6.7403335299
  O       312.3283279279     -197.4329230867       21.8081109232
  H       312.9574735346     -197.4452593538       22.5853008582
  H       312.7090832248     -196.8629123052       21.0800217753
  O      -200.3350441793      -78.9708543695       16.2518117787
  H      -200.8522898485      -79.4884238767       15.5702111954
  H      -199.7514860798      -78.3025140649       15.7905288596
  O       189.3655293711      -42.4437109478        6.2475103195
  H       190.1041324380      -43.1027449378        6.3894272818
  H       189.2007138158      -41.9400065554        7.0955188385
  O       -24.0366332902     -130.3985321073        5.0218538911
  H       -23.1101250124     -130.7356194316        4.8546556539
  H       -24.0326405914     -129.3985397548        5.0216104008
  O      -280.1851130492       43.4950223049        3.0472393251
  H      -280.8460301719       42.9140102079        2.5722506886
  H      -279.2776966208       43.3625845729        2.6484205964
  O       215.7563693449     -127.0493174789        2.4929101718
  H       214.9666881720     -127.6499356564        2.3677616441
  H       215.5002352327     -126.2793193531        3.0772892514
  O       -88.8123930728      -70.7788374307       18.5382422365
  H       -87.9545635200      -70.2976139327       18.3578174373
  H       -88.9901039341      -70.7858000736       19.5223007073
  O       -78.5226487314      241.7864853758       19.4722969287
  H       -78.0934433897      242.5781246530       19.9071425797
  H       -78.1853485556      241.6973110403       18.5351324617
  O       283.2321985528       81.2820190992       19.2471914458
  H       284.1510219836       81.4928481862       18.9135519589
  H       282.5980814829       81.2424263919       18.4749682486
  O        77.8761955777      -34.6538635123       25.2722349350
  H        78.1452767464      -34.2374032362       24.4038129702
  H        78.5924934006      -34.4985327867       25.9525219800
  O       202.9281131618        2.7340284593        9.0721827308
  H       203.7063752265        2.2339809367        9.4520003006
  H       202.4932684411        3.2722485319        9.7941452876
  O       -41.9086825686      206.2128126984       24.8078098011
  H       -41.3439365907      205.4131761239       25.0118788735
  H       -41.4052967989      207.0447601392       25.0411908737
  O       103.3789134644      -59.4628859030        5.5001608277
  H       103.2802131261      -59.5958620184        4.5139679467
  H       103.3126306397      -60.3463585573        5.9639317209
  O      -104.4957377471      -94.1437886075       13.6387505115
  H      -104.2587858443      -93.1765925316       13.7303269899
  H      -103.8063237194      -94.7011444804       14.1014204082
  O       322.6653552220     -123.2278674466       12.7683416681
  H       322.0896621127     -123.2830819995       11.9525417514
  H       322.1915837143     -122.7034033318       13.4757868314
  O      -257.1886572014      178.6136148433        8.1077484613
  H      -256.8509449488      179.5337335014        7.9094234842
  H      -257.1134566854      178.0468841426        7.2872840161
  O      -130.4405305549      -18.5509386723        7.9438644814
  H      -129.8588866919      -17.7909199068        7.6539289709
  H      -131.0215146837      -18.2555802689        8.7022981063
  O        33.3191222542      528.8748516951        9.4441451430
  H        33.9478580320      528.2642532443        8.9626250944
  H        32.6102907490      529.1889622540        8.8125652537
  O      -394.7155697932       53.4275053542       13.0277783029
  H      -395.4439384743       53.9545757180       12.5899694364
  H      -394.5356174043       53.7999804878       13.9382068391
  O       119.2478653924      217.7258388148       20.2347905397
  H       118.3938371950      217.4622436798       20.6832927908
  H       119.2631399544      217.3585867872       19.3047940526
  O      -129.5415956227     -259.9383836944        3.3432609015
  H      -128.6734857655     -259.4949667676        3.5663467734
  H      -129.4487389134     -260.9278438321        3.4543780310
  O       226.8468087265      319.5069852533       22.1777356899
  H       225.9120353594      319.8544462116       22.2516974371
  H       227.3719272372      319.7894534977       22.9805201840
  O        31.4134099627     -233.7638730687       13.1465114293
  H        30.6093939026     -233.2242825641       13.3963132805
  H        31.2775655374     -234.7140084494       13.4272065604
  O      -119.8587844215     -171.5235836409       24.1535601356
  H      -118.9449515208     -171.1851920601       24.3780626528
  H      -120.5452130420     -170.9591465227       24.6120653492
  O      -169.3039430005      266.5356094812       24.2695429001
  H      -169.7631351183      267.3994793052       24.0624865632
  H      -168.7358734073      266.6471310188       25.0849328182
  O      -163.0429533174      106.5391616546       10.0083746786
  H      -163.5774790317      106.1538233074       10.7605696679
  H      -163.0665512831      105.9140411229        9.2282027813
  O       175.4179567687      178.9344791664       20.7750412553
  H       174.7001494899      178.9071215985       21.4707459205
  H       175.3916442046      178.0928350905       20.2356493710
  O      -324.2882072027       91.5829495253        8.4002098961
  H      -324.1730936306       91.0904468304        9.2628747882
  H      -325.1550254031       91.3176649535        7.9780118233
  O      -201.5146437652     -127.4848109976        3.2539733808
  H      -202.1315069944     -128.2687197995        3.1834932505
  H      -201.9408665470     -126.7745491489        3.8142081076
  O      -176.8575038051      326.5739700659        9.5136962096
  H      -177.2919250505      326.7170083171        8.6244162280
  H      -177.1363655736      325.6871228505        9.8821237350
  O       -52.9114931365      -57.2698915557       21.9839418869
  H       -52.4055551022      -56.7259654433       21.3144855455
  H       -53.1023638044      -56.7115330774       22.7912862374
  O       -68.0706855852       96.5341779334        8.6181166157
  H       -67.8638104365       97.5113443170        8.6665855750
  H       -68.9224759660       96.3490665450        9.1082060245
  O        43.4360144185      223.9466603178        7.0986983536
  H        44.2683662269      223.5092269110        6.7583407879
  H        42.6373861499      223.4327168315        6.7855603402
  O       196.5514301845      109.9049189787       19.7187375766
  H       196.6563903060      109.0167426095       20.1660929347
  H       197.3146796453      110.0537525431       19.0900090684
  O      -177.7419864885     -200.4216759118       16.4099051291
  H      -177.6758304762     -199.5393587263       16.8758884698
  H      -176.9029993581     -200.9436317577       16.5637342442
  O       109.8174141451     -155.5310221468       12.7543455804
  H       109.5649318403     -156.4246250824       13.1254617154
  H       110.2511979508     -155.6513918760       11.8614046838
  O       141.5784599471       45.9622806683       15.3987333167
  H       142.4604725155       45.5309605491       15.2089504634
  H       141.3641424404       46.6161453132       14.6731096293
  O       -29.6540884673      394.1714880128       13.7335406308
  H       -29.9374871587      394.4082245596       12.8042174194
  H       -30.2159437889      394.6730869639       14.3913534391
  O       281.4273227141       66.1002214127       18.0066086268
  H       282.2686895519       65.6829384111       17.6631301275
  H       281.2698982171       65.8057619488       18.9492176557
  O       340.2686392981     -151.5220955383       13.9579617741
  H       339.7420242592     -150.6755731821       14.0359182181
  H       339.9595143902     -152.0343943822       13.1567174646
  O       298.6054262348      -69.8946869906       14.5095065573
  H       299.5500907539      -70.1480817788       14.7178349709
  H       298.3882687503      -70.1608604775       13.5703606660
  O       -80.4242296681       82.2619065485       23.7309524104
  H       -80.3097736810       83.2551529451       23.7119227842
  H       -80.8816812350       81.9629639899       22.8934727901
  O      -184.4427503951      -91.0264227286       19.0399754105
  H      -184.6750658699      -90.8295631674       18.0874647622
  H      -183.4881246122      -90.7804962493       19.2079351214
  O       -91.1334203864     -119.3626340426       20.5829853578
  H       -91.1453517125     -119.8857434677       19.7308029613
  H       -91.9813770725     -118.8388758365       20.6645163310
  O       109.4378886712       68.8825835304        6.5167850587
  H       108.6466638840       69.1667678929        5.9753025267
  H       110.2741084672       69.2312064522        6.0934659225
  O       102.4038997364      204.7202489272       15.7700238838
  H       102.8873009905      205.5800455982       15.6054835921
  H       102.0100797733      204.7298599588       16.6891616877
  O       368.6429529140      -67.5634449421       16.4676382124
  H       369.0867144625      -68.3994067628       16.1447694631
  H       369.3170549786      -66.8265739699       16.5187095630
  O        14.8646362542     -120.1581898260        4.4824751394
  H        15.5580097869     -119.8807530056        5.1475034540
  H        14.9848896822     -121.1255479938        4.2594101441
  O       150.1306855943      -65.6434781834        3.0481551060
  H       149.9240510270      -65.5957367393        4.0254081220
  H       150.2963934923      -66.5948747564        2.7885672014
  O        54.5245255518     -104.1934485711       10.9817767889
  H        54.4409261833     -103.2409828132       11.2747283464
  H        55.4910179256     -104.4476774202       10.9462680431
  O        86.4557277704     -163.2069408788       22.7379183387
  H        85.8389362421     -162.8651063130       22.0288922183
  H        86.4637928180     -162.5694947735       23.5083715258
  O       155.9593748781      260.4198912289        2.7486150862
  H       156.8604610900      260.7963415189        2.9638580249
  H       155.9220425415      260.1781589327        1.7789901588
  O      -159.5710807443     -277.4429156164       15.2224966826
  H      -159.2059732832     -277.9398472117       16.0097427495
  H      -160.2973586553     -277.9818012129       14.7957373820
  O      -138.4482337330     -112.8306404029        7.3812368536
  H      -138.2225817007     -112.5123951468        6.4604752201
  H      -137.6611014180     -112.6952299271        7.9829739309
  O       124.1558597965      124.5963664759        9.9203347252
  H       124.2876829853      125.5854946743        9.9855172718
  H       123.3749123759      124.3263218084       10.4835378069
  O        98.9975157019        8.9239051181       17.1254993723
  H        99.6280546839        8.2037498987       17.4149775968
  H        98.2375863448        8.5175054211       16.6182053544
  O        63.9474864125      -61.7763440593       16.6664745049
  H        64.4150735281      -61.3282002650       17.4283998325
  H        64.5526078586      -62.4611178685       16.2603788641
  O       125.5530568335     -179.5712563760       10.4567434370
  H       125.8565538637     -179.5508956810        9.5041282435
  H       126.1890454918     -179.0443430177       11.0205532037
  O      -243.8556990370     -272.6522419338        2.9767716548
  H      -242.8570139810     -272.6041058589        2.9944282889
  H      -244.2324248764     -271.7298877021        2.8910909145
  O       210.2941986390     -418.7975757254        3.9931748867
  H       209.3455839504     -418.9858893985        3.7388741986
  H       210.4750547261     -419.1685202666        4.9040491541
  O        26.4734411152     -135.9880270713        6.7942277250
  H        25.6271771669     -136.1103775342        7.3127529448
  H        26.9801991933     -136.8499024390        6.7750492571
  O       -13.6730083983      295.6983000928        3.4031633531
  H       -13.3185501565      295.0543802498        2.7251314233
  H       -14.6406438368      295.8740313786        3.2220532200
  O      -331.9501078319     -342.2342019344       23.7779256247
  H      -331.8613819485     -341.3661308765       24.2663732243
  H      -332.0947456788     -342.0557854947       22.8046588832
  O      -274.0114087610      -50.3439325151       24.5746474940